 Entering Gaussian System, Link 0=g16
 Input=1pbenzyne-sfccsd_tz_opt_geom-BSUB3LYP_6-311ppGss_nics.com
 Output=1pbenzyne-sfccsd_tz_opt_geom-BSUB3LYP_6-311ppGss_nics.log
 Initial command:
 /usr/local/gaussian/g16B01/g16/l1.exe "/tmp/Gau-190380.inp" -scrdir="/tmp/"
 Entering Link 1 = /usr/local/gaussian/g16B01/g16/l1.exe PID=    190381.
  
 Copyright (c) 1988-2017, Gaussian, Inc.  All Rights Reserved.
  
 This is part of the Gaussian(R) 16 program.  It is based on
 the Gaussian(R) 09 system (copyright 2009, Gaussian, Inc.),
 the Gaussian(R) 03 system (copyright 2003, Gaussian, Inc.),
 the Gaussian(R) 98 system (copyright 1998, Gaussian, Inc.),
 the Gaussian(R) 94 system (copyright 1995, Gaussian, Inc.),
 the Gaussian 92(TM) system (copyright 1992, Gaussian, Inc.),
 the Gaussian 90(TM) system (copyright 1990, Gaussian, Inc.),
 the Gaussian 88(TM) system (copyright 1988, Gaussian, Inc.),
 the Gaussian 86(TM) system (copyright 1986, Carnegie Mellon
 University), and the Gaussian 82(TM) system (copyright 1983,
 Carnegie Mellon University). Gaussian is a federally registered
 trademark of Gaussian, Inc.
  
 This software contains proprietary and confidential information,
 including trade secrets, belonging to Gaussian, Inc.
  
 This software is provided under written license and may be
 used, copied, transmitted, or stored only in accord with that
 written license.
  
 The following legend is applicable only to US Government
 contracts under FAR:
  
                    RESTRICTED RIGHTS LEGEND
  
 Use, reproduction and disclosure by the US Government is
 subject to restrictions as set forth in subparagraphs (a)
 and (c) of the Commercial Computer Software - Restricted
 Rights clause in FAR 52.227-19.
  
 Gaussian, Inc.
 340 Quinnipiac St., Bldg. 40, Wallingford CT 06492
  
  
 ---------------------------------------------------------------
 Warning -- This program may not be used in any manner that
 competes with the business of Gaussian, Inc. or will provide
 assistance to any competitor of Gaussian, Inc.  The licensee
 of this program is prohibited from giving any competitor of
 Gaussian, Inc. access to this program.  By using this program,
 the user acknowledges that Gaussian, Inc. is engaged in the
 business of creating and licensing software in the field of
 computational chemistry and represents and warrants to the
 licensee that it is not a competitor of Gaussian, Inc. and that
 it will not use this program in any manner prohibited above.
 ---------------------------------------------------------------
  

 Cite this work as:
 Gaussian 16, Revision B.01,
 M. J. Frisch, G. W. Trucks, H. B. Schlegel, G. E. Scuseria, 
 M. A. Robb, J. R. Cheeseman, G. Scalmani, V. Barone, 
 G. A. Petersson, H. Nakatsuji, X. Li, M. Caricato, A. V. Marenich, 
 J. Bloino, B. G. Janesko, R. Gomperts, B. Mennucci, H. P. Hratchian, 
 J. V. Ortiz, A. F. Izmaylov, J. L. Sonnenberg, D. Williams-Young, 
 F. Ding, F. Lipparini, F. Egidi, J. Goings, B. Peng, A. Petrone, 
 T. Henderson, D. Ranasinghe, V. G. Zakrzewski, J. Gao, N. Rega, 
 G. Zheng, W. Liang, M. Hada, M. Ehara, K. Toyota, R. Fukuda, 
 J. Hasegawa, M. Ishida, T. Nakajima, Y. Honda, O. Kitao, H. Nakai, 
 T. Vreven, K. Throssell, J. A. Montgomery, Jr., J. E. Peralta, 
 F. Ogliaro, M. J. Bearpark, J. J. Heyd, E. N. Brothers, K. N. Kudin, 
 V. N. Staroverov, T. A. Keith, R. Kobayashi, J. Normand, 
 K. Raghavachari, A. P. Rendell, J. C. Burant, S. S. Iyengar, 
 J. Tomasi, M. Cossi, J. M. Millam, M. Klene, C. Adamo, R. Cammi, 
 J. W. Ochterski, R. L. Martin, K. Morokuma, O. Farkas, 
 J. B. Foresman, and D. J. Fox, Gaussian, Inc., Wallingford CT, 2016.
 
 ******************************************
 Gaussian 16:  ES64L-G16RevB.01 20-Dec-2017
                 6-Apr-2022 
 ******************************************
 %chk=1pbenzyne-sfccsd_tz_opt_geom-BSUB3LYP_6-311ppGss_nics.chk
 %nproc=2
 Will use up to    2 processors via shared memory.
 -----------------------------------------------------
 #UB3LYP/6-311++G** guess=(mix,always) scf=qc NMR=GIAO
 -----------------------------------------------------
 1/38=1,172=1/1;
 2/12=2,17=6,18=5,40=1/2;
 3/5=4,6=6,7=1111,11=2,25=1,30=1,74=-5,116=2/1,2,3,8;
 4/13=-1/1;
 5/5=2,8=3,38=5/8;
 8/6=1,10=90,11=11/1;
 10/13=100,45=16/2;
 6/7=2,8=2,9=2,10=2,28=1/1;
 99/9=1/99;
 ---------------------------------------------------------------------
 Adam Luxon's singlet p-benzyne structure optimized at SF-CCSD/cc-pVTZ
 ---------------------------------------------------------------------
 Symbolic Z-matrix:
 Charge =  0 Multiplicity = 1
 C                     2.28117  -1.33839   0. 
 H                     4.05613  -2.32355   0. 
 C                     0.       -2.53277   0. 
 C                    -2.28117  -1.33839   0. 
 H                    -4.05613  -2.32355   0. 
 C                     2.28117   1.33839   0. 
 H                     4.05613   2.32355   0. 
 C                     0.        2.53277   0. 
 C                    -2.28117   1.33839   0. 
 H                    -4.05613   2.32355   0. 
 Bq                    0.        0.       -1.88973 
 Bq                    0.        0.        0. 
 Bq                    0.        0.        1.88973 
 
                          Input orientation:                          
 ---------------------------------------------------------------------
 Center     Atomic      Atomic             Coordinates (Angstroms)
 Number     Number       Type             X           Y           Z
 ---------------------------------------------------------------------
      1          6           0        2.281170   -1.338390    0.000000
      2          1           0        4.056127   -2.323551    0.000000
      3          6           0        0.000000   -2.532775    0.000000
      4          6           0       -2.281170   -1.338390    0.000000
      5          1           0       -4.056127   -2.323551    0.000000
      6          6           0        2.281170    1.338390    0.000000
      7          1           0        4.056127    2.323551    0.000000
      8          6           0        0.000000    2.532775    0.000000
      9          6           0       -2.281170    1.338390    0.000000
     10          1           0       -4.056127    2.323551    0.000000
     11          0           0        0.000000    0.000000   -1.889726
     12          0           0        0.000000    0.000000    0.000000
     13          0           0        0.000000    0.000000    1.889726
 ---------------------------------------------------------------------
                    Distance matrix (angstroms):
                    1          2          3          4          5
     1  C    0.000000
     2  H    2.030029   0.000000
     3  C    2.574935   4.061520   0.000000
     4  C    4.562340   6.413414   2.574935   0.000000
     5  H    6.413414   8.112255   4.061520   2.030029   0.000000
     6  C    2.676780   4.069433   4.493290   5.289621   7.319232
     7  H    4.069433   4.647103   6.327407   7.319232   9.349024
     8  C    4.493290   6.327407   5.065550   4.493290   6.327407
     9  C    5.289621   7.319232   4.493290   2.676780   4.069433
    10  H    7.319232   9.349024   6.327407   4.069433   4.647103
    11  Bq   3.250552   5.042036   3.160065   3.250552   5.042036
    12  Bq   2.644811   4.674512   2.532775   2.644811   4.674512
    13  Bq   3.250552   5.042036   3.160065   3.250552   5.042036
                    6          7          8          9         10
     6  C    0.000000
     7  H    2.030029   0.000000
     8  C    2.574935   4.061520   0.000000
     9  C    4.562340   6.413414   2.574935   0.000000
    10  H    6.413414   8.112255   4.061520   2.030029   0.000000
    11  Bq   3.250552   5.042036   3.160065   3.250552   5.042036
    12  Bq   2.644811   4.674512   2.532775   2.644811   4.674512
    13  Bq   3.250552   5.042036   3.160065   3.250552   5.042036
                   11         12         13
    11  Bq   0.000000
    12  Bq   1.889726   0.000000
    13  Bq   3.779452   1.889726   0.000000
 Symmetry turned off:
 Cannot cope with ghost atoms or with translation vectors.
 Stoichiometry    C6H4
 Framework group  C1[X(C6H4)]
 NumDoF:  NAt=    10 NAtoms=    13
 Deg. of freedom     0
 Full point group                 C1      NOp   1
 Rotational constants (GHZ):           1.9311009           1.5987797           0.8746486
 Standard basis: 6-311++G(d,p) (5D, 7F)
 Warning:  center  11 has no basis functions!
 Warning:  center  12 has no basis functions!
 Warning:  center  13 has no basis functions!
   160 basis functions,   252 primitive gaussians,   166 cartesian basis functions
    20 alpha electrons       20 beta electrons
       nuclear repulsion energy        98.7992760811 Hartrees.
 NAtoms=   13 NActive=   13 NUniq=   13 SFac= 1.00D+00 NAtFMM=   60 NAOKFM=F Big=F
 Integral buffers will be    131072 words long.
 Raffenetti 2 integral format.
 Two-electron integral symmetry is turned off.
 One-electron integrals computed using PRISM.
 NBasis=   160 RedAO= T EigKep=  5.91D-04  NBF=   160
 NBsUse=   160 1.00D-06 EigRej= -1.00D+00 NBFU=   160
 ExpMin= 3.60D-02 ExpMax= 4.56D+03 ExpMxC= 6.82D+02 IAcc=3 IRadAn=         5 AccDes= 0.00D+00
 Harris functional with IExCor=  402 and IRadAn=       5 diagonalized for initial guess.
 HarFok:  IExCor=  402 AccDes= 0.00D+00 IRadAn=         5 IDoV= 1 UseB2=F ITyADJ=14
 ICtDFT=  3500011 ScaDFX=  1.000000  1.000000  1.000000  1.000000
 FoFCou: FMM=F IPFlag=           0 FMFlag=      100000 FMFlg1=           0
         NFxFlg=           0 DoJE=T BraDBF=F KetDBF=T FulRan=T
         wScrn=  0.000000 ICntrl=       500 IOpCl=  0 I1Cent=   200000004 NGrid=           0
         NMat0=    1 NMatS0=      1 NMatT0=    0 NMatD0=    1 NMtDS0=    0 NMtDT0=    0
 Symmetry not used in FoFCou.
 Mixing orbitals, IMix= 1 IMixAn=  0 NRI=1 NE=   20 Coef=  7.07106781D-01  7.07106781D-01
 Mixing orbitals, IMix= 1 IMixAn=  0 NRI=1 NE=   20 Coef= -7.07106781D-01  7.07106781D-01
 Initial guess <Sx>= 0.0000 <Sy>= 0.0000 <Sz>= 0.0000 <S**2>= 1.0000 S= 0.6180
 Gradient too large for Newton-Raphson -- use scaled steepest descent instead.
     Accept linear search using points  1 and  2.
 Gradient too large for Newton-Raphson -- use scaled steepest descent instead.
     Minimum is close to point  2 DX=  1.59D-02 DF= -2.89D-05 DXR=  5.02D-02 DFR=  2.53D-03 which will be used.
 Gradient too large for Newton-Raphson -- use scaled steepest descent instead.
     Accept linear search using points  3 and  4.
 Gradient too large for Newton-Raphson -- use scaled steepest descent instead.
     Accept linear search using points  1 and  2.
 Gradient too large for Newton-Raphson -- use scaled steepest descent instead.
 Gradient too large for Newton-Raphson -- use scaled steepest descent instead.
 Gradient too large for Newton-Raphson -- use scaled steepest descent instead.
     Accept linear search using points  1 and  2.
 Gradient too large for Newton-Raphson -- use scaled steepest descent instead.
     Accept linear search using points  1 and  2.
 Restarting incremental Fock formation.
 Gradient too large for Newton-Raphson -- use scaled steepest descent instead.
 Gradient too large for Newton-Raphson -- use scaled steepest descent instead.
     Accept linear search using points  1 and  2.
 Gradient too large for Newton-Raphson -- use scaled steepest descent instead.
 Gradient too large for Newton-Raphson -- use scaled steepest descent instead.
     Accept linear search using points  1 and  2.
 Gradient too large for Newton-Raphson -- use scaled steepest descent instead.
 Gradient too large for Newton-Raphson -- use scaled steepest descent instead.
 Restarting incremental Fock formation.
 Gradient too large for Newton-Raphson -- use scaled steepest descent instead.
     Accept linear search using points  1 and  2.
     Minimum is close to point  2 DX= -6.02D-03 DF= -5.33D-08 DXR=  6.73D-03 DFR=  3.58D-05 which will be used.
 Gradient too large for Newton-Raphson -- use scaled steepest descent instead.
 Gradient too large for Newton-Raphson -- use scaled steepest descent instead.
     Accept linear search using points  1 and  2.
     Minimum is close to point  2 DX= -2.54D-02 DF= -7.25D-07 DXR=  2.90D-02 DFR=  6.72D-04 which will be used.
 Gradient too large for Newton-Raphson -- use scaled steepest descent instead.
 Gradient too large for Newton-Raphson -- use scaled steepest descent instead.
     Accept linear search using points  1 and  2.
     Minimum is close to point  2 DX= -1.36D-02 DF= -1.27D-07 DXR=  1.54D-02 DFR=  1.88D-04 which will be used.
 Gradient too large for Newton-Raphson -- use scaled steepest descent instead.
 LinEq1:  Iter=  0 NonCon=     1 RMS=8.81D-04 Max=3.61D-02 NDo=     1
 AX will form     1 AO Fock derivatives at one time.
 LinEq1:  Iter=  1 NonCon=     1 RMS=1.30D-03 Max=3.77D-02 NDo=     1
 LinEq1:  Iter=  2 NonCon=     1 RMS=2.63D-04 Max=5.49D-03 NDo=     1
 LinEq1:  Iter=  3 NonCon=     1 RMS=6.09D-05 Max=1.22D-03 NDo=     1
 LinEq1:  Iter=  4 NonCon=     1 RMS=8.42D-05 Max=1.96D-03 NDo=     1
 LinEq1:  Iter=  5 NonCon=     1 RMS=6.96D-05 Max=1.05D-03 NDo=     1
 LinEq1:  Iter=  6 NonCon=     1 RMS=1.28D-04 Max=3.91D-03 NDo=     1
 LinEq1:  Iter=  7 NonCon=     1 RMS=1.63D-04 Max=4.35D-03 NDo=     1
 LinEq1:  Iter=  8 NonCon=     1 RMS=5.02D-05 Max=9.25D-04 NDo=     1
 LinEq1:  Iter=  9 NonCon=     1 RMS=1.18D-04 Max=3.34D-03 NDo=     1
 LinEq1:  Iter= 10 NonCon=     1 RMS=1.13D-04 Max=2.15D-03 NDo=     1
 LinEq1:  Iter= 11 NonCon=     1 RMS=2.10D-05 Max=3.68D-04 NDo=     1
 LinEq1:  Iter= 12 NonCon=     1 RMS=3.62D-05 Max=8.17D-04 NDo=     1
 LinEq1:  Iter= 13 NonCon=     1 RMS=1.94D-05 Max=3.37D-04 NDo=     1
 LinEq1:  Iter= 14 NonCon=     1 RMS=6.17D-06 Max=1.04D-04 NDo=     1
 LinEq1:  Iter= 15 NonCon=     1 RMS=2.66D-06 Max=3.94D-05 NDo=     1
 LinEq1:  Iter= 16 NonCon=     1 RMS=3.12D-06 Max=7.29D-05 NDo=     1
 LinEq1:  Iter= 17 NonCon=     1 RMS=4.66D-06 Max=9.10D-05 NDo=     1
 LinEq1:  Iter= 18 NonCon=     1 RMS=1.56D-06 Max=2.10D-05 NDo=     1
 LinEq1:  Iter= 19 NonCon=     1 RMS=4.43D-07 Max=7.01D-06 NDo=     1
 LinEq1:  Iter= 20 NonCon=     1 RMS=2.31D-07 Max=6.63D-06 NDo=     1
 LinEq1:  Iter= 21 NonCon=     1 RMS=1.97D-07 Max=3.52D-06 NDo=     1
 LinEq1:  Iter= 22 NonCon=     1 RMS=1.09D-07 Max=1.40D-06 NDo=     1
 LinEq1:  Iter= 23 NonCon=     1 RMS=1.91D-08 Max=3.17D-07 NDo=     1
 LinEq1:  Iter= 24 NonCon=     0 RMS=2.42D-09 Max=3.08D-08 NDo=     1
 Linear equations converged to 7.483D-09 7.483D-08 after    24 iterations.
     Accept linear search using points  1 and  2.
 LinEq1:  Iter=  0 NonCon=     1 RMS=4.48D-05 Max=1.05D-03 NDo=     1
 LinEq1:  Iter=  1 NonCon=     1 RMS=9.11D-05 Max=2.67D-03 NDo=     1
 LinEq1:  Iter=  2 NonCon=     1 RMS=3.44D-05 Max=8.57D-04 NDo=     1
 LinEq1:  Iter=  3 NonCon=     1 RMS=4.43D-05 Max=9.45D-04 NDo=     1
 LinEq1:  Iter=  4 NonCon=     1 RMS=1.60D-05 Max=2.47D-04 NDo=     1
 LinEq1:  Iter=  5 NonCon=     1 RMS=5.80D-06 Max=8.52D-05 NDo=     1
 LinEq1:  Iter=  6 NonCon=     1 RMS=1.26D-05 Max=3.64D-04 NDo=     1
 LinEq1:  Iter=  7 NonCon=     1 RMS=1.19D-05 Max=2.44D-04 NDo=     1
 LinEq1:  Iter=  8 NonCon=     1 RMS=5.13D-06 Max=8.12D-05 NDo=     1
 LinEq1:  Iter=  9 NonCon=     1 RMS=1.20D-05 Max=3.55D-04 NDo=     1
 LinEq1:  Iter= 10 NonCon=     1 RMS=9.15D-06 Max=1.91D-04 NDo=     1
 LinEq1:  Iter= 11 NonCon=     1 RMS=1.95D-06 Max=4.37D-05 NDo=     1
 LinEq1:  Iter= 12 NonCon=     1 RMS=8.03D-07 Max=1.08D-05 NDo=     1
 LinEq1:  Iter= 13 NonCon=     1 RMS=9.85D-07 Max=2.41D-05 NDo=     1
 LinEq1:  Iter= 14 NonCon=     1 RMS=4.90D-07 Max=5.39D-06 NDo=     1
 LinEq1:  Iter= 15 NonCon=     1 RMS=3.39D-07 Max=5.74D-06 NDo=     1
 LinEq1:  Iter= 16 NonCon=     1 RMS=1.29D-07 Max=1.99D-06 NDo=     1
 LinEq1:  Iter= 17 NonCon=     1 RMS=2.52D-07 Max=5.28D-06 NDo=     1
 LinEq1:  Iter= 18 NonCon=     1 RMS=2.25D-07 Max=4.54D-06 NDo=     1
 LinEq1:  Iter= 19 NonCon=     1 RMS=7.85D-08 Max=1.13D-06 NDo=     1
 LinEq1:  Iter= 20 NonCon=     1 RMS=5.92D-08 Max=1.53D-06 NDo=     1
 LinEq1:  Iter= 21 NonCon=     1 RMS=5.32D-08 Max=8.94D-07 NDo=     1
 LinEq1:  Iter= 22 NonCon=     1 RMS=1.96D-08 Max=2.14D-07 NDo=     1
 LinEq1:  Iter= 23 NonCon=     1 RMS=8.07D-09 Max=1.60D-07 NDo=     1
 LinEq1:  Iter= 24 NonCon=     1 RMS=5.49D-09 Max=1.41D-07 NDo=     1
 LinEq1:  Iter= 25 NonCon=     0 RMS=1.53D-09 Max=2.18D-08 NDo=     1
 Linear equations converged to 7.483D-09 7.483D-08 after    25 iterations.
     Minimum is close to point  2 DX=  1.62D-04 DF= -2.84D-14 DXR=  1.62D-04 DFR=  1.53D-08 which will be used.
 LinEq1:  Iter=  0 NonCon=     1 RMS=1.33D-07 Max=2.44D-06 NDo=     1
 LinEq1:  Iter=  1 NonCon=     1 RMS=1.51D-07 Max=3.54D-06 NDo=     1
 LinEq1:  Iter=  2 NonCon=     1 RMS=1.60D-07 Max=3.45D-06 NDo=     1
 LinEq1:  Iter=  3 NonCon=     1 RMS=1.08D-07 Max=2.11D-06 NDo=     1
 LinEq1:  Iter=  4 NonCon=     1 RMS=4.96D-08 Max=9.41D-07 NDo=     1
 LinEq1:  Iter=  5 NonCon=     1 RMS=2.23D-08 Max=5.78D-07 NDo=     1
 LinEq1:  Iter=  6 NonCon=     1 RMS=6.65D-08 Max=1.79D-06 NDo=     1
 LinEq1:  Iter=  7 NonCon=     1 RMS=2.60D-08 Max=4.30D-07 NDo=     1
 LinEq1:  Iter=  8 NonCon=     1 RMS=1.38D-08 Max=3.44D-07 NDo=     1
 LinEq1:  Iter=  9 NonCon=     1 RMS=3.85D-08 Max=1.23D-06 NDo=     1
 LinEq1:  Iter= 10 NonCon=     1 RMS=2.20D-08 Max=5.25D-07 NDo=     1
 LinEq1:  Iter= 11 NonCon=     1 RMS=1.54D-08 Max=3.59D-07 NDo=     1
 LinEq1:  Iter= 12 NonCon=     1 RMS=1.10D-08 Max=2.43D-07 NDo=     1
 LinEq1:  Iter= 13 NonCon=     1 RMS=1.74D-08 Max=3.26D-07 NDo=     1
 LinEq1:  Iter= 14 NonCon=     1 RMS=6.56D-09 Max=1.08D-07 NDo=     1
 LinEq1:  Iter= 15 NonCon=     1 RMS=3.64D-09 Max=7.27D-08 NDo=     1
 LinEq1:  Iter= 16 NonCon=     1 RMS=5.05D-09 Max=1.02D-07 NDo=     1
 LinEq1:  Iter= 17 NonCon=     1 RMS=8.64D-09 Max=1.55D-07 NDo=     1
 LinEq1:  Iter= 18 NonCon=     1 RMS=8.23D-09 Max=1.04D-07 NDo=     1
 LinEq1:  Iter= 19 NonCon=     1 RMS=3.04D-09 Max=7.38D-08 NDo=     1
 LinEq1:  Iter= 20 NonCon=     1 RMS=1.59D-09 Max=3.59D-08 NDo=     1
 LinEq1:  Iter= 21 NonCon=     1 RMS=5.52D-10 Max=6.91D-09 NDo=     1
 LinEq1:  Iter= 22 NonCon=     1 RMS=4.21D-10 Max=5.68D-09 NDo=     1
 LinEq1:  Iter= 23 NonCon=     1 RMS=1.31D-10 Max=1.66D-09 NDo=     1
 LinEq1:  Iter= 24 NonCon=     1 RMS=9.84D-11 Max=1.38D-09 NDo=     1
 LinEq1:  Iter= 25 NonCon=     1 RMS=2.70D-11 Max=7.42D-10 NDo=     1
 LinEq1:  Iter= 26 NonCon=     0 RMS=5.33D-12 Max=9.82D-11 NDo=     1
 Linear equations converged to 2.146D-11 2.146D-10 after    26 iterations.
 SCF Done:  E(UB3LYP) =  -229.307674952     a.u. after   24 cycles
            Convg  =    0.1633D-10                   133 Fock formations.
              S**2 =  2.9980                  -V/T =  2.0112
 <Sx>= 0.0000 <Sy>= 0.0000 <Sz>= 0.0000 <S**2>= 2.9980 S= 1.3022
 <L.S>=  0.00000000000    
 Annihilation of the first spin contaminant:
 S**2 before annihilation     2.9980,   after    10.3171
 DoSCS=F DFT=T ScalE2(SS,OS)=  1.000000  1.000000
 Range of M.O.s used for correlation:     1   160
 NBasis=   160 NAE=    20 NBE=    20 NFC=     0 NFV=     0
 NROrb=    160 NOA=    20 NOB=    20 NVA=   140 NVB=   140

 **** Warning!!: The largest alpha MO coefficient is  0.13654851D+02


 **** Warning!!: The smallest alpha delta epsilon is  0.66904138D-01


 **** Warning!!: The largest beta MO coefficient is  0.13654851D+02


 **** Warning!!: The smallest beta delta epsilon is  0.66904138D-01

          Differentiating once with respect to magnetic field using GIAOs.
          Electric field/nuclear overlap derivatives assumed to be zero.
 Keep R3 ints in memory in canonical form, NReq=86979522.
 FoFJK:  IHMeth= 1 ICntrl=    6127 DoSepK=F KAlg= 0 I1Cent=           0 FoldK=F
 IRaf=         1 NMat=       1 IRICut=       1 DoRegI=T DoRafI=F ISym2E= 0 IDoP0=0 IntGTp=1.
          There are     3 degrees of freedom in the 1st order CPHF.  IDoFFX=0 NUNeed=     3.
      3 vectors produced by pass  0 Test12= 1.87D-13 3.33D-08 XBig12= 1.81D+02 5.11D+00.
 AX will form     3 AO Fock derivatives at one time.
      3 vectors produced by pass  1 Test12= 1.87D-13 3.33D-08 XBig12= 5.09D+00 6.23D-01.
      3 vectors produced by pass  2 Test12= 1.87D-13 3.33D-08 XBig12= 2.06D-01 1.60D-01.
      3 vectors produced by pass  3 Test12= 1.87D-13 3.33D-08 XBig12= 5.28D-03 2.20D-02.
      3 vectors produced by pass  4 Test12= 1.87D-13 3.33D-08 XBig12= 1.07D-04 2.19D-03.
      3 vectors produced by pass  5 Test12= 1.87D-13 3.33D-08 XBig12= 1.26D-06 3.84D-04.
      3 vectors produced by pass  6 Test12= 1.87D-13 3.33D-08 XBig12= 2.42D-08 3.91D-05.
      3 vectors produced by pass  7 Test12= 1.87D-13 3.33D-08 XBig12= 5.49D-10 7.25D-06.
      3 vectors produced by pass  8 Test12= 1.87D-13 3.33D-08 XBig12= 7.26D-12 7.03D-07.
      2 vectors produced by pass  9 Test12= 1.87D-13 3.33D-08 XBig12= 1.11D-13 1.08D-07.
 InvSVY:  IOpt=1 It=  1 EMax= 1.78D-15
 Solved reduced A of dimension    29 with     3 vectors.
 Calculating GIAO nuclear magnetic shielding tensors.
 SCF GIAO Magnetic shielding tensor (ppm):
      1  C    Isotropic =  -999.4912   Anisotropy =   612.4289
   XX= -1096.1356   YX=   243.0520   ZX=     0.0000
   XY=   427.5414   YY= -1311.1327   ZY=     0.0000
   XZ=     0.0000   YZ=     0.0000   ZZ=  -591.2053
   Eigenvalues: -1555.7419  -851.5265  -591.2053
      2  H    Isotropic =    13.9429   Anisotropy =    12.9178
   XX=     5.4394   YX=     8.5858   ZX=     0.0000
   XY=    10.7912   YY=    13.8346   ZY=     0.0000
   XZ=     0.0000   YZ=     0.0000   ZZ=    22.5548
   Eigenvalues:    -0.9217    20.1957    22.5548
      3  C    Isotropic = -2411.1719   Anisotropy =   424.1192
   XX= -2951.2952   YX=     0.0000   ZX=     0.0000
   XY=     0.0000   YY= -2153.7947   ZY=     0.0000
   XZ=     0.0000   YZ=     0.0000   ZZ= -2128.4258
   Eigenvalues: -2951.2952 -2153.7947 -2128.4258
      4  C    Isotropic =  -999.4912   Anisotropy =   612.4289
   XX= -1096.1356   YX=  -243.0520   ZX=     0.0000
   XY=  -427.5414   YY= -1311.1327   ZY=     0.0000
   XZ=     0.0000   YZ=     0.0000   ZZ=  -591.2053
   Eigenvalues: -1555.7419  -851.5265  -591.2053
      5  H    Isotropic =    13.9429   Anisotropy =    12.9178
   XX=     5.4394   YX=    -8.5858   ZX=     0.0000
   XY=   -10.7912   YY=    13.8346   ZY=     0.0000
   XZ=     0.0000   YZ=     0.0000   ZZ=    22.5548
   Eigenvalues:    -0.9217    20.1957    22.5548
      6  C    Isotropic =  -999.4912   Anisotropy =   612.4289
   XX= -1096.1356   YX=  -243.0520   ZX=     0.0000
   XY=  -427.5414   YY= -1311.1327   ZY=     0.0000
   XZ=     0.0000   YZ=     0.0000   ZZ=  -591.2053
   Eigenvalues: -1555.7419  -851.5265  -591.2053
      7  H    Isotropic =    13.9429   Anisotropy =    12.9178
   XX=     5.4394   YX=    -8.5858   ZX=     0.0000
   XY=   -10.7912   YY=    13.8346   ZY=     0.0000
   XZ=     0.0000   YZ=     0.0000   ZZ=    22.5548
   Eigenvalues:    -0.9217    20.1957    22.5548
      8  C    Isotropic = -2411.1719   Anisotropy =   424.1192
   XX= -2951.2952   YX=     0.0000   ZX=     0.0000
   XY=     0.0000   YY= -2153.7947   ZY=     0.0000
   XZ=     0.0000   YZ=     0.0000   ZZ= -2128.4258
   Eigenvalues: -2951.2952 -2153.7947 -2128.4258
      9  C    Isotropic =  -999.4912   Anisotropy =   612.4289
   XX= -1096.1356   YX=   243.0520   ZX=     0.0000
   XY=   427.5414   YY= -1311.1327   ZY=     0.0000
   XZ=     0.0000   YZ=     0.0000   ZZ=  -591.2053
   Eigenvalues: -1555.7419  -851.5265  -591.2053
     10  H    Isotropic =    13.9429   Anisotropy =    12.9178
   XX=     5.4394   YX=     8.5858   ZX=     0.0000
   XY=    10.7912   YY=    13.8346   ZY=     0.0000
   XZ=     0.0000   YZ=     0.0000   ZZ=    22.5548
   Eigenvalues:    -0.9217    20.1957    22.5548
     11  Bq   Isotropic =    -0.1592   Anisotropy =     7.4680
   XX=     4.8194   YX=     0.0000   ZX=     0.0000
   XY=     0.0000   YY=    -2.3649   ZY=     0.0000
   XZ=     0.0000   YZ=     0.0000   ZZ=    -2.9322
   Eigenvalues:    -2.9322    -2.3649     4.8194
     12  Bq   Isotropic =    -2.5557   Anisotropy =    18.0673
   XX=     3.2935   YX=     0.0000   ZX=     0.0000
   XY=     0.0000   YY=   -20.4497   ZY=     0.0000
   XZ=     0.0000   YZ=     0.0000   ZZ=     9.4892
   Eigenvalues:   -20.4497     3.2935     9.4892
     13  Bq   Isotropic =    -0.1592   Anisotropy =     7.4680
   XX=     4.8194   YX=     0.0000   ZX=     0.0000
   XY=     0.0000   YY=    -2.3649   ZY=     0.0000
   XZ=     0.0000   YZ=     0.0000   ZZ=    -2.9322
   Eigenvalues:    -2.9322    -2.3649     4.8194
 g value of the free electron [g_e]: 0.20023193D+01
 relativistic mass correction [g_RMC]: 0.00000000D+00
 diamagnetic correction to g tensor [g_DC]:
   XX= 0.00000000D+00   YX= 0.00000000D+00   ZX= 0.00000000D+00
   XY= 0.00000000D+00   YY= 0.00000000D+00   ZY= 0.00000000D+00
   XZ= 0.00000000D+00   YZ= 0.00000000D+00   ZZ= 0.00000000D+00
 orbital Zeeman and spin-orbit coupling contribution to g tensor [g_OZ/SOC]:
   XX= 0.00000000D+00   YX= 0.00000000D+00   ZX= 0.00000000D+00
   XY= 0.00000000D+00   YY= 0.00000000D+00   ZY= 0.00000000D+00
   XZ= 0.00000000D+00   YZ= 0.00000000D+00   ZZ= 0.00000000D+00
 g tensor [g = g_e + g_RMC + g_DC + g_OZ/SOC]:
   XX= 0.20023193D+01   YX= 0.00000000D+00   ZX= 0.00000000D+00
   XY= 0.00000000D+00   YY= 0.20023193D+01   ZY= 0.00000000D+00
   XZ= 0.00000000D+00   YZ= 0.00000000D+00   ZZ= 0.20023193D+01
 g shifts relative to the free electron (ppm):
   xx=            0.0   yy=            0.0   zz=            0.0
 End of Minotr F.D. properties file   721 does not exist.
 End of Minotr F.D. properties file   722 does not exist.
 End of Minotr F.D. properties file   788 does not exist.

 **********************************************************************

            Population analysis using the SCF Density.

 **********************************************************************

 Alpha  occ. eigenvalues --  -10.36215 -10.36215 -10.36215 -10.36214 -10.33926
 Alpha  occ. eigenvalues --  -10.33925  -0.61057  -0.59417  -0.59284  -0.56094
 Alpha  occ. eigenvalues --   -0.54750  -0.52926  -0.31036  -0.30982  -0.30090
 Alpha  occ. eigenvalues --   -0.29480  -0.28774  -0.26201  -0.25880  -0.25493
 Alpha virt. eigenvalues --   -0.18803  -0.17831  -0.17613  -0.16409  -0.15882
 Alpha virt. eigenvalues --   -0.15357  -0.12919  -0.12523  -0.11023  -0.10166
 Alpha virt. eigenvalues --   -0.09034  -0.08376  -0.08152  -0.06359   0.03156
 Alpha virt. eigenvalues --    0.03862   0.03879   0.05034   0.05280   0.05670
 Alpha virt. eigenvalues --    0.07230   0.07344   0.07965   0.08222   0.08560
 Alpha virt. eigenvalues --    0.09795   0.09905   0.10086   0.10711   0.11502
 Alpha virt. eigenvalues --    0.12279   0.13310   0.13789   0.14531   0.15791
 Alpha virt. eigenvalues --    0.16280   0.19340   0.19747   0.19899   0.22318
 Alpha virt. eigenvalues --    0.25746   0.26006   0.40443   0.41138   0.43280
 Alpha virt. eigenvalues --    0.43458   0.48470   0.49785   0.50221   0.51140
 Alpha virt. eigenvalues --    0.53908   0.54178   0.55454   0.55527   0.57160
 Alpha virt. eigenvalues --    0.57972   0.58115   0.60698   0.61115   0.61522
 Alpha virt. eigenvalues --    0.61796   0.63813   0.66071   0.66367   0.67965
 Alpha virt. eigenvalues --    0.70843   0.71990   0.77234   0.77476   0.93964
 Alpha virt. eigenvalues --    1.13895   1.14621   1.18147   1.18844   1.20875
 Alpha virt. eigenvalues --    1.22655   1.23046   1.23305   1.24131   1.24733
 Alpha virt. eigenvalues --    1.25087   1.25733   1.26311   1.26485   1.26711
 Alpha virt. eigenvalues --    1.28423   1.29415   1.29997   1.30185   1.31645
 Alpha virt. eigenvalues --    1.31681   1.31860   1.34387   1.34540   1.36427
 Alpha virt. eigenvalues --    1.36489   1.36613   1.37012   1.37120   1.37291
 Alpha virt. eigenvalues --    1.39207   1.41202   1.47804   1.48515   1.53953
 Alpha virt. eigenvalues --    1.54865   1.56082   1.56758   1.70334   1.70344
 Alpha virt. eigenvalues --    1.71602   1.71873   2.41015   2.42021   2.43547
 Alpha virt. eigenvalues --    2.45093   2.60474   2.60760   2.61655   2.61950
 Alpha virt. eigenvalues --    2.63521   2.63615   2.63886   2.65813   2.66160
 Alpha virt. eigenvalues --    2.67873   2.70041   2.71849   2.72288   2.75460
 Alpha virt. eigenvalues --    2.76449   2.77309   2.77400   2.80955  23.11595
 Alpha virt. eigenvalues --   23.15114  23.15641  23.20576  23.20847  23.27096
  Beta  occ. eigenvalues --  -10.36215 -10.36215 -10.36215 -10.36214 -10.33926
  Beta  occ. eigenvalues --  -10.33925  -0.61057  -0.59417  -0.59284  -0.56094
  Beta  occ. eigenvalues --   -0.54750  -0.52926  -0.31036  -0.30982  -0.30090
  Beta  occ. eigenvalues --   -0.29480  -0.28774  -0.26201  -0.25880  -0.25493
  Beta virt. eigenvalues --   -0.18803  -0.17831  -0.17613  -0.16409  -0.15882
  Beta virt. eigenvalues --   -0.15357  -0.12919  -0.12523  -0.11023  -0.10166
  Beta virt. eigenvalues --   -0.09034  -0.08376  -0.08152  -0.06359   0.03156
  Beta virt. eigenvalues --    0.03862   0.03879   0.05034   0.05280   0.05670
  Beta virt. eigenvalues --    0.07230   0.07344   0.07965   0.08222   0.08560
  Beta virt. eigenvalues --    0.09795   0.09905   0.10086   0.10711   0.11502
  Beta virt. eigenvalues --    0.12279   0.13310   0.13789   0.14531   0.15791
  Beta virt. eigenvalues --    0.16280   0.19340   0.19747   0.19899   0.22318
  Beta virt. eigenvalues --    0.25746   0.26006   0.40443   0.41138   0.43280
  Beta virt. eigenvalues --    0.43458   0.48470   0.49785   0.50221   0.51140
  Beta virt. eigenvalues --    0.53908   0.54178   0.55454   0.55527   0.57160
  Beta virt. eigenvalues --    0.57972   0.58115   0.60698   0.61115   0.61522
  Beta virt. eigenvalues --    0.61796   0.63813   0.66071   0.66367   0.67965
  Beta virt. eigenvalues --    0.70843   0.71990   0.77234   0.77476   0.93964
  Beta virt. eigenvalues --    1.13895   1.14621   1.18147   1.18844   1.20875
  Beta virt. eigenvalues --    1.22655   1.23046   1.23305   1.24131   1.24733
  Beta virt. eigenvalues --    1.25087   1.25733   1.26311   1.26485   1.26711
  Beta virt. eigenvalues --    1.28423   1.29415   1.29997   1.30185   1.31645
  Beta virt. eigenvalues --    1.31681   1.31860   1.34387   1.34540   1.36427
  Beta virt. eigenvalues --    1.36489   1.36613   1.37012   1.37120   1.37291
  Beta virt. eigenvalues --    1.39207   1.41202   1.47804   1.48515   1.53953
  Beta virt. eigenvalues --    1.54865   1.56082   1.56758   1.70334   1.70344
  Beta virt. eigenvalues --    1.71602   1.71873   2.41015   2.42021   2.43547
  Beta virt. eigenvalues --    2.45093   2.60474   2.60760   2.61655   2.61950
  Beta virt. eigenvalues --    2.63521   2.63615   2.63886   2.65813   2.66160
  Beta virt. eigenvalues --    2.67873   2.70041   2.71849   2.72288   2.75460
  Beta virt. eigenvalues --    2.76449   2.77309   2.77400   2.80955  23.11595
  Beta virt. eigenvalues --   23.15114  23.15641  23.20576  23.20847  23.27096
          Condensed to atoms (all electrons):
               1          2          3          4          5          6
     1  C    5.658639   0.141354   0.086745  -0.000392   0.000167   0.119087
     2  H    0.141354   0.853087   0.005895   0.000167  -0.000012   0.006772
     3  C    0.086745   0.005895   5.769529   0.086745   0.005895   0.001510
     4  C   -0.000392   0.000167   0.086745   5.658639   0.141354   0.001746
     5  H    0.000167  -0.000012   0.005895   0.141354   0.853087  -0.000027
     6  C    0.119087   0.006772   0.001510   0.001746  -0.000027   5.658639
     7  H    0.006772  -0.002095   0.000229  -0.000027  -0.000001   0.141354
     8  C    0.001510   0.000229  -0.000228   0.001510   0.000229   0.086745
     9  C    0.001746  -0.000027   0.001510   0.119087   0.006772  -0.000392
    10  H   -0.000027  -0.000001   0.000229   0.006772  -0.002095   0.000167
    11  Bq   0.000000   0.000000   0.000000   0.000000   0.000000   0.000000
    12  Bq   0.000000   0.000000   0.000000   0.000000   0.000000   0.000000
    13  Bq   0.000000   0.000000   0.000000   0.000000   0.000000   0.000000
               7          8          9         10         11         12
     1  C    0.006772   0.001510   0.001746  -0.000027   0.000000   0.000000
     2  H   -0.002095   0.000229  -0.000027  -0.000001   0.000000   0.000000
     3  C    0.000229  -0.000228   0.001510   0.000229   0.000000   0.000000
     4  C   -0.000027   0.001510   0.119087   0.006772   0.000000   0.000000
     5  H   -0.000001   0.000229   0.006772  -0.002095   0.000000   0.000000
     6  C    0.141354   0.086745  -0.000392   0.000167   0.000000   0.000000
     7  H    0.853087   0.005895   0.000167  -0.000012   0.000000   0.000000
     8  C    0.005895   5.769529   0.086745   0.005895   0.000000   0.000000
     9  C    0.000167   0.086745   5.658639   0.141354   0.000000   0.000000
    10  H   -0.000012   0.005895   0.141354   0.853087   0.000000   0.000000
    11  Bq   0.000000   0.000000   0.000000   0.000000   0.000000   0.000000
    12  Bq   0.000000   0.000000   0.000000   0.000000   0.000000   0.000000
    13  Bq   0.000000   0.000000   0.000000   0.000000   0.000000   0.000000
              13
     1  C    0.000000
     2  H    0.000000
     3  C    0.000000
     4  C    0.000000
     5  H    0.000000
     6  C    0.000000
     7  H    0.000000
     8  C    0.000000
     9  C    0.000000
    10  H    0.000000
    11  Bq   0.000000
    12  Bq   0.000000
    13  Bq   0.000000
          Atomic-Atomic Spin Densities.
               1          2          3          4          5          6
     1  C    0.000000   0.000000   0.000000   0.000000   0.000000   0.000000
     2  H    0.000000   0.000000   0.000000   0.000000   0.000000   0.000000
     3  C    0.000000   0.000000   0.000000   0.000000   0.000000   0.000000
     4  C    0.000000   0.000000   0.000000   0.000000   0.000000   0.000000
     5  H    0.000000   0.000000   0.000000   0.000000   0.000000   0.000000
     6  C    0.000000   0.000000   0.000000   0.000000   0.000000   0.000000
     7  H    0.000000   0.000000   0.000000   0.000000   0.000000   0.000000
     8  C    0.000000   0.000000   0.000000   0.000000   0.000000   0.000000
     9  C    0.000000   0.000000   0.000000   0.000000   0.000000   0.000000
    10  H    0.000000   0.000000   0.000000   0.000000   0.000000   0.000000
    11  Bq   0.000000   0.000000   0.000000   0.000000   0.000000   0.000000
    12  Bq   0.000000   0.000000   0.000000   0.000000   0.000000   0.000000
    13  Bq   0.000000   0.000000   0.000000   0.000000   0.000000   0.000000
               7          8          9         10         11         12
     1  C    0.000000   0.000000   0.000000   0.000000   0.000000   0.000000
     2  H    0.000000   0.000000   0.000000   0.000000   0.000000   0.000000
     3  C    0.000000   0.000000   0.000000   0.000000   0.000000   0.000000
     4  C    0.000000   0.000000   0.000000   0.000000   0.000000   0.000000
     5  H    0.000000   0.000000   0.000000   0.000000   0.000000   0.000000
     6  C    0.000000   0.000000   0.000000   0.000000   0.000000   0.000000
     7  H    0.000000   0.000000   0.000000   0.000000   0.000000   0.000000
     8  C    0.000000   0.000000   0.000000   0.000000   0.000000   0.000000
     9  C    0.000000   0.000000   0.000000   0.000000   0.000000   0.000000
    10  H    0.000000   0.000000   0.000000   0.000000   0.000000   0.000000
    11  Bq   0.000000   0.000000   0.000000   0.000000   0.000000   0.000000
    12  Bq   0.000000   0.000000   0.000000   0.000000   0.000000   0.000000
    13  Bq   0.000000   0.000000   0.000000   0.000000   0.000000   0.000000
              13
     1  C    0.000000
     2  H    0.000000
     3  C    0.000000
     4  C    0.000000
     5  H    0.000000
     6  C    0.000000
     7  H    0.000000
     8  C    0.000000
     9  C    0.000000
    10  H    0.000000
    11  Bq   0.000000
    12  Bq   0.000000
    13  Bq   0.000000
 Mulliken charges and spin densities:
               1          2
     1  C   -0.015601   0.000000
     2  H   -0.005370   0.000000
     3  C    0.041941   0.000000
     4  C   -0.015601   0.000000
     5  H   -0.005370   0.000000
     6  C   -0.015601   0.000000
     7  H   -0.005370   0.000000
     8  C    0.041941   0.000000
     9  C   -0.015601   0.000000
    10  H   -0.005370   0.000000
    11  Bq   0.000000   0.000000
    12  Bq   0.000000   0.000000
    13  Bq   0.000000   0.000000
 Sum of Mulliken charges =   0.00000   0.00000
 Mulliken charges and spin densities with hydrogens summed into heavy atoms:
               1          2
     1  C   -0.020970   0.000000
     3  C    0.041941   0.000000
     4  C   -0.020970   0.000000
     6  C   -0.020970   0.000000
     8  C    0.041941   0.000000
     9  C   -0.020970   0.000000
    11  Bq   0.000000   0.000000
    12  Bq   0.000000   0.000000
    13  Bq   0.000000   0.000000
 Electronic spatial extent (au):  <R**2>=           1283.7792
 Charge=              0.0000 electrons
 Dipole moment (field-independent basis, Debye):
    X=              0.0000    Y=              0.0000    Z=              0.0000  Tot=              0.0000
 Quadrupole moment (field-independent basis, Debye-Ang):
   XX=            -45.1975   YY=            -40.7571   ZZ=            -44.8395
   XY=              0.0000   XZ=              0.0000   YZ=              0.0000
 Traceless Quadrupole moment (field-independent basis, Debye-Ang):
   XX=             -1.5995   YY=              2.8409   ZZ=             -1.2414
   XY=              0.0000   XZ=              0.0000   YZ=              0.0000
 Octapole moment (field-independent basis, Debye-Ang**2):
  XXX=              0.0000  YYY=              0.0000  ZZZ=              0.0000  XYY=              0.0000
  XXY=              0.0000  XXZ=              0.0000  XZZ=              0.0000  YZZ=              0.0000
  YYZ=              0.0000  XYZ=              0.0000
 Hexadecapole moment (field-independent basis, Debye-Ang**3):
 XXXX=          -1376.6588 YYYY=           -930.4879 ZZZZ=            -63.1080 XXXY=              0.0000
 XXXZ=              0.0000 YYYX=              0.0000 YYYZ=              0.0000 ZZZX=              0.0000
 ZZZY=              0.0000 XXYY=           -385.4458 XXZZ=           -248.3882 YYZZ=           -186.3478
 XXYZ=              0.0000 YYXZ=              0.0000 ZZXY=              0.0000
 N-N= 9.879927608110D+01 E-N=-7.285740727044D+02  KE= 2.267750098023D+02
                          Isotropic Fermi Contact Couplings
        Atom                 a.u.       MegaHertz       Gauss      10(-4) cm-1
     1  C(13)              0.00000       0.00000       0.00000       0.00000
     2  H(1)               0.00000       0.00000       0.00000       0.00000
     3  C(13)              0.00000       0.00000       0.00000       0.00000
     4  C(13)              0.00000       0.00000       0.00000       0.00000
     5  H(1)               0.00000       0.00000       0.00000       0.00000
     6  C(13)              0.00000       0.00000       0.00000       0.00000
     7  H(1)               0.00000       0.00000       0.00000       0.00000
     8  C(13)              0.00000       0.00000       0.00000       0.00000
     9  C(13)              0.00000       0.00000       0.00000       0.00000
    10  H(1)               0.00000       0.00000       0.00000       0.00000
 --------------------------------------------------------
       Center         ----  Spin Dipole Couplings  ----
                      3XX-RR        3YY-RR        3ZZ-RR
 --------------------------------------------------------
     1   Atom        0.000000      0.000000      0.000000
     2   Atom        0.000000      0.000000      0.000000
     3   Atom        0.000000      0.000000      0.000000
     4   Atom        0.000000      0.000000      0.000000
     5   Atom        0.000000      0.000000      0.000000
     6   Atom        0.000000      0.000000      0.000000
     7   Atom        0.000000      0.000000      0.000000
     8   Atom        0.000000      0.000000      0.000000
     9   Atom        0.000000      0.000000      0.000000
    10   Atom        0.000000      0.000000      0.000000
    11   Atom        0.000000      0.000000      0.000000
    12   Atom        0.000000      0.000000      0.000000
    13   Atom        0.000000      0.000000      0.000000
 --------------------------------------------------------
                        XY            XZ            YZ
 --------------------------------------------------------
     1   Atom        0.000000      0.622795      0.537297
     2   Atom        0.000000     -0.001352      0.003052
     3   Atom        0.000000      1.610736      0.000000
     4   Atom        0.000000      0.622795     -0.537297
     5   Atom        0.000000     -0.001352     -0.003052
     6   Atom        0.000000      0.622795     -0.537297
     7   Atom        0.000000     -0.001352     -0.003052
     8   Atom        0.000000      1.610736      0.000000
     9   Atom        0.000000      0.622795      0.537297
    10   Atom        0.000000     -0.001352      0.003052
    11   Atom        0.000000      0.000768      0.000000
    12   Atom        0.000000     -0.001977      0.000000
    13   Atom        0.000000      0.000768      0.000000
 --------------------------------------------------------


 ---------------------------------------------------------------------------------
              Anisotropic Spin Dipole Couplings in Principal Axis System
 ---------------------------------------------------------------------------------

       Atom             a.u.   MegaHertz   Gauss  10(-4) cm-1        Axes

              Baa    -0.8225  -110.376   -39.385   -36.818 -0.5354 -0.4619  0.7071
     1 C(13)  Bbb     0.0000     0.000     0.000     0.000 -0.6532  0.7572  0.0000
              Bcc     0.8225   110.376    39.385    36.818  0.5354  0.4619  0.7071
 
              Baa    -0.0033    -1.781    -0.636    -0.594  0.2864 -0.6465  0.7071
     2 H(1)   Bbb     0.0000     0.000     0.000     0.000  0.9143  0.4050  0.0000
              Bcc     0.0033     1.781     0.636     0.594 -0.2864  0.6465  0.7071
 
              Baa    -1.6107  -216.145   -77.126   -72.098  0.7071  0.0000 -0.7071
     3 C(13)  Bbb     0.0000     0.000     0.000     0.000  0.0000  1.0000  0.0000
              Bcc     1.6107   216.145    77.126    72.098  0.7071  0.0000  0.7071
 
              Baa    -0.8225  -110.376   -39.385   -36.818 -0.5354  0.4619  0.7071
     4 C(13)  Bbb     0.0000     0.000     0.000     0.000  0.6532  0.7572  0.0000
              Bcc     0.8225   110.376    39.385    36.818  0.5354 -0.4619  0.7071
 
              Baa    -0.0033    -1.781    -0.636    -0.594  0.2864  0.6465  0.7071
     5 H(1)   Bbb     0.0000     0.000     0.000     0.000  0.9143 -0.4050  0.0000
              Bcc     0.0033     1.781     0.636     0.594 -0.2864 -0.6465  0.7071
 
              Baa    -0.8225  -110.376   -39.385   -36.818 -0.5354  0.4619  0.7071
     6 C(13)  Bbb     0.0000     0.000     0.000     0.000  0.6532  0.7572  0.0000
              Bcc     0.8225   110.376    39.385    36.818  0.5354 -0.4619  0.7071
 
              Baa    -0.0033    -1.781    -0.636    -0.594  0.2864  0.6465  0.7071
     7 H(1)   Bbb     0.0000     0.000     0.000     0.000  0.9143 -0.4050  0.0000
              Bcc     0.0033     1.781     0.636     0.594 -0.2864 -0.6465  0.7071
 
              Baa    -1.6107  -216.145   -77.126   -72.098  0.7071  0.0000 -0.7071
     8 C(13)  Bbb     0.0000     0.000     0.000     0.000  0.0000  1.0000  0.0000
              Bcc     1.6107   216.145    77.126    72.098  0.7071  0.0000  0.7071
 
              Baa    -0.8225  -110.376   -39.385   -36.818 -0.5354 -0.4619  0.7071
     9 C(13)  Bbb     0.0000     0.000     0.000     0.000 -0.6532  0.7572  0.0000
              Bcc     0.8225   110.376    39.385    36.818  0.5354  0.4619  0.7071
 
              Baa    -0.0033    -1.781    -0.636    -0.594  0.2864 -0.6465  0.7071
    10 H(1)   Bbb     0.0000     0.000     0.000     0.000  0.9143  0.4050  0.0000
              Bcc     0.0033     1.781     0.636     0.594 -0.2864  0.6465  0.7071
 

 ---------------------------------------------------------------------------------

 1\1\GINC-GPU01\SP\UB3LYP\6-311++G(d,p)\C6H4\DSIRIANN\06-Apr-2022\0\\#U
 B3LYP/6-311++G** guess=(mix,always) scf=qc NMR=GIAO\\Adam Luxon's sing
 let p-benzyne structure optimized at SF-CCSD/cc-pVTZ\\0,1\C,0,2.281169
 87,-1.33838999,0.\H,0,4.05612741,-2.32355131,0.\C,0,0.,-2.53277489,0.\
 C,0,-2.28116987,-1.33838999,0.\H,0,-4.05612741,-2.32355131,0.\C,0,2.28
 116987,1.33838999,0.\H,0,4.05612741,2.32355131,0.\C,0,0.,2.53277489,0.
 \C,0,-2.28116987,1.33838999,0.\H,0,-4.0561274,2.32355131,0.\Bq,0,0.,0.
 ,-1.88972613\Bq,0,0.,0.,0.\Bq,0,0.,0.,1.88972613\\Version=ES64L-G16Rev
 B.01\HF=-229.307675\S2=2.997975\S2-1=0.\S2A=10.317093\RMSD=2.183e-13\D
 ipole=0.,0.,0.\Quadrupole=-1.1891709,2.1121483,-0.9229774,0.,0.,0.\PG=
 C01 [X(C6H4)]\\@


 ... UNTIL SCIENCE IS MIXED WITH EMOTION AND APPEALS TO THE HEART AND
 IMAGINATION , IT IS LIKE DEAD INORGANIC MATTER; AND WHEN IT IS SO MIXED
 AND SO TRANSFORMED IT IS LITERATURE.

                                  -- JOHN BURROUGHS
 Job cpu time:       0 days  0 hours  8 minutes 10.6 seconds.
 Elapsed time:       0 days  0 hours  8 minutes 10.6 seconds.
 File lengths (MBytes):  RWF=     24 Int=      0 D2E=      0 Chk=      4 Scr=      1
 Normal termination of Gaussian 16 at Wed Apr  6 16:42:31 2022.
